
     Program PWSCF v.6.4.1 starts on  5Jun2020 at  5:27:42 

     This program is part of the open-source Quantum ESPRESSO suite
     for quantum simulation of materials; please cite
         "P. Giannozzi et al., J. Phys.:Condens. Matter 21 395502 (2009);
         "P. Giannozzi et al., J. Phys.:Condens. Matter 29 465901 (2017);
          URL http://www.quantum-espresso.org", 
     in publications or presentations arising from this work. More details at
     http://www.quantum-espresso.org/quote

     Parallel version (MPI), running on     1 processors

     MPI processes distributed on     1 nodes
     Reading input from /cloud/Code/python/qeeos/examples/example1/wd/pwscf_eos/eos_3.in
Warning: card &IONS ignored
Warning: card ION_DYNAMICS = 'BFGS', ignored
Warning: card / ignored
Warning: card &CELL ignored
Warning: card CELL_DYNAMICS = 'BFGS', ignored
Warning: card CELL_FACTOR = 2.0, ignored
Warning: card PRESS = 0.0, ignored
Warning: card / ignored

     Current dimensions of program PWSCF are:
     Max number of different atomic species (ntypx) = 10
     Max number of k-points (npk) =  40000
     Max angular momentum in pseudopotentials (lmaxx) =  3
               file Al.pbe-nl-kjpaw_psl.1.0.0.UPF: wavefunction(s)  3S 3P renormalized

     Subspace diagonalization in iterative solution of the eigenvalue problem:
     a serial algorithm will be used

     Found symmetry operation: I + ( -0.5000 -0.5000  0.0000)
     This is a supercell, fractional translations are disabled
     Message from routine setup:
     DEPRECATED: symmetry with ibrav=0, use correct ibrav instead

     G-vector sticks info
     --------------------
     sticks:   dense  smooth     PW     G-vecs:    dense   smooth      PW
     Sum         465     465    145                 7497     7497    1365



     bravais-lattice index     =            0
     lattice parameter (alat)  =       7.6302  a.u.
     unit-cell volume          =     442.9028 (a.u.)^3
     number of atoms/cell      =            4
     number of atomic types    =            1
     number of electrons       =        12.00
     number of Kohn-Sham states=           10
     kinetic-energy cutoff     =      25.0000  Ry
     charge density cutoff     =     100.0000  Ry
     convergence threshold     =      1.0E-06
     mixing beta               =       0.1000
     number of iterations used =           10  TF        mixing
     Exchange-correlation      = SLA PW PBX PBC ( 1  4  3  4 0 0)

     celldm(1)=   7.630225  celldm(2)=   0.000000  celldm(3)=   0.000000
     celldm(4)=   0.000000  celldm(5)=   0.000000  celldm(6)=   0.000000

     crystal axes: (cart. coord. in units of alat)
               a(1) = (   0.999000   0.000000   0.000000 )  
               a(2) = (   0.000000   0.999000   0.000000 )  
               a(3) = (   0.000000   0.000000   0.999000 )  

     reciprocal axes: (cart. coord. in units 2 pi/alat)
               b(1) = (  1.001001  0.000000  0.000000 )  
               b(2) = (  0.000000  1.001001  0.000000 )  
               b(3) = (  0.000000  0.000000  1.001001 )  


     PseudoPot. # 1 for Al read from file:
     /opt/pp/Al.pbe-nl-kjpaw_psl.1.0.0.UPF
     MD5 check sum: 1b67f78b73fe58c7924490f171ce8a1e
     Pseudo is Projector augmented-wave + core cor, Zval =  3.0
     Generated using "atomic" code by A. Dal Corso v.6.3
     Shape of augmentation charge: PSQ
     Using radial grid of 1135 points,  4 beta functions with: 
                l(1) =   0
                l(2) =   0
                l(3) =   1
                l(4) =   1
     Q(r) pseudized with 0 coefficients 


     atomic species   valence    mass     pseudopotential
        Al             3.00    26.98200     Al( 1.00)

     48 Sym. Ops., with inversion, found



   Cartesian axes

     site n.     atom                  positions (alat units)
         1           Al  tau(   1) = (   0.0000000   0.0000000   0.0000000  )
         2           Al  tau(   2) = (   0.4995000   0.4995000   0.0000000  )
         3           Al  tau(   3) = (   0.4995000   0.0000000   0.4995000  )
         4           Al  tau(   4) = (   0.0000000   0.4995000   0.4995000  )

     number of k points=     4  Marzari-Vanderbilt smearing, width (Ry)=  0.0400
                       cart. coord. in units 2pi/alat
        k(    1) = (   0.1668335   0.1668335   0.1668335), wk =   0.5925926
        k(    2) = (   0.1668335   0.1668335  -0.5005005), wk =   0.8888889
        k(    3) = (   0.1668335  -0.5005005  -0.5005005), wk =   0.4444444
        k(    4) = (  -0.5005005  -0.5005005  -0.5005005), wk =   0.0740741

     Dense  grid:     7497 G-vectors     FFT dimensions: (  25,  25,  25)

     Estimated max dynamical RAM per process >      12.22 MB

     Initial potential from superposition of free atoms

     starting charge   11.99084, renormalised to   12.00000
     Starting wfcs are   16 randomized atomic wfcs
     Checking if some PAW data can be deallocated... 

     total cpu time spent up to now is        0.6 secs

     Self-consistent Calculation

     iteration #  1     ecut=    25.00 Ry     beta= 0.10
     Davidson diagonalization with overlap
     ethr =  1.00E-02,  avg # of iterations =  2.8

     Threshold (ethr) on eigenvalues was too large:
     Diagonalizing with lowered threshold

     Davidson diagonalization with overlap
     ethr =  1.88E-04,  avg # of iterations =  2.5

     total cpu time spent up to now is        0.8 secs

     total energy              =    -158.05260886 Ry
     Harris-Foulkes estimate   =    -158.05325676 Ry
     estimated scf accuracy    <       0.02179758 Ry

     iteration #  2     ecut=    25.00 Ry     beta= 0.10
     Davidson diagonalization with overlap
     ethr =  1.82E-04,  avg # of iterations =  1.0

     total cpu time spent up to now is        1.0 secs

     total energy              =    -158.04750436 Ry
     Harris-Foulkes estimate   =    -158.05273464 Ry
     estimated scf accuracy    <       0.01878273 Ry

     iteration #  3     ecut=    25.00 Ry     beta= 0.10
     Davidson diagonalization with overlap
     ethr =  1.57E-04,  avg # of iterations =  1.0

     total cpu time spent up to now is        1.2 secs

     total energy              =    -158.04768381 Ry
     Harris-Foulkes estimate   =    -158.04773676 Ry
     estimated scf accuracy    <       0.00008972 Ry

     iteration #  4     ecut=    25.00 Ry     beta= 0.10
     Davidson diagonalization with overlap
     ethr =  7.48E-07,  avg # of iterations =  4.2

     total cpu time spent up to now is        1.3 secs

     total energy              =    -158.04781682 Ry
     Harris-Foulkes estimate   =    -158.04773492 Ry
     estimated scf accuracy    <       0.00004641 Ry

     iteration #  5     ecut=    25.00 Ry     beta= 0.10
     Davidson diagonalization with overlap
     ethr =  3.87E-07,  avg # of iterations =  1.0

     total cpu time spent up to now is        1.5 secs

     total energy              =    -158.04777613 Ry
     Harris-Foulkes estimate   =    -158.04781831 Ry
     estimated scf accuracy    <       0.00009092 Ry

     iteration #  6     ecut=    25.00 Ry     beta= 0.10
     Davidson diagonalization with overlap
     ethr =  3.87E-07,  avg # of iterations =  1.2

     total cpu time spent up to now is        1.7 secs

     End of self-consistent calculation

          k = 0.1668 0.1668 0.1668 (   943 PWs)   bands (ev):

    -2.4567   3.4315   3.4315   3.4315   8.9973   8.9973   8.9974   9.4892
     9.4892   9.4893

          k = 0.1668 0.1668-0.5005 (   926 PWs)   bands (ev):

    -0.4590  -0.4589   5.2111   5.2112   5.4966   5.4967  10.9767  10.9767
    10.9835  10.9836

          k = 0.1668-0.5005-0.5005 (   944 PWs)   bands (ev):

     1.5112   1.5113   1.5113   1.5114   7.2625   7.2625   7.2625   7.2627
    13.1000  13.1001

          k =-0.5005-0.5005-0.5005 (   968 PWs)   bands (ev):

     3.3455   3.3456   3.3456   3.3456   3.5799   3.5799   3.5799   3.5802
    19.4255  19.4256

     the Fermi energy is     8.5930 ev

!    total energy              =    -158.04777879 Ry
     Harris-Foulkes estimate   =    -158.04777956 Ry
     estimated scf accuracy    <       0.00000087 Ry

     total all-electron energy =     -1942.618901 Ry

     The total energy is the sum of the following terms:

     one-electron contribution =      12.67560883 Ry
     hartree contribution      =       0.02552697 Ry
     xc contribution           =     -10.37730065 Ry
     ewald contribution        =     -21.65339357 Ry
     one-center paw contrib.   =    -138.71534381 Ry
     smearing contrib. (-TS)   =      -0.00287655 Ry

     convergence has been achieved in   6 iterations

     Forces acting on atoms (cartesian axes, Ry/au):

     atom    1 type  1   force =     0.00000000    0.00000000    0.00000000
     atom    2 type  1   force =     0.00000000    0.00000000    0.00000000
     atom    3 type  1   force =     0.00000000    0.00000000    0.00000000
     atom    4 type  1   force =     0.00000000    0.00000000    0.00000000

     Total force =     0.000000     Total SCF correction =     0.000000


     Computing stress (Cartesian axis) and pressure

          total   stress  (Ry/bohr**3)                   (kbar)     P=    1.63
   0.00001109   0.00000000   0.00000000          1.63      0.00      0.00
   0.00000000   0.00001109   0.00000000          0.00      1.63      0.00
   0.00000000   0.00000000   0.00001109          0.00      0.00      1.63


     Writing output data file xVgcubxCHUtAaHRe.save/

     init_run     :      0.26s CPU      0.27s WALL (       1 calls)
     electrons    :      1.09s CPU      1.10s WALL (       1 calls)
     forces       :      0.04s CPU      0.04s WALL (       1 calls)
     stress       :      0.05s CPU      0.05s WALL (       1 calls)

     Called by init_run:
     wfcinit      :      0.02s CPU      0.03s WALL (       1 calls)
     potinit      :      0.12s CPU      0.13s WALL (       1 calls)
     hinit0       :      0.10s CPU      0.10s WALL (       1 calls)

     Called by electrons:
     c_bands      :      0.24s CPU      0.25s WALL (       7 calls)
     sum_band     :      0.07s CPU      0.07s WALL (       7 calls)
     v_of_rho     :      0.04s CPU      0.04s WALL (       7 calls)
     newd         :      0.03s CPU      0.03s WALL (       7 calls)
     PAW_pot      :      0.83s CPU      0.84s WALL (       7 calls)
     mix_rho      :      0.00s CPU      0.00s WALL (       7 calls)

     Called by c_bands:
     init_us_2    :      0.01s CPU      0.01s WALL (      68 calls)
     cegterg      :      0.23s CPU      0.24s WALL (      28 calls)

     Called by sum_band:
     sum_band:bec :      0.00s CPU      0.00s WALL (      28 calls)
     addusdens    :      0.02s CPU      0.02s WALL (       7 calls)

     Called by *egterg:
     h_psi        :      0.17s CPU      0.18s WALL (      87 calls)
     s_psi        :      0.02s CPU      0.02s WALL (      87 calls)
     g_psi        :      0.00s CPU      0.00s WALL (      55 calls)
     cdiaghg      :      0.01s CPU      0.01s WALL (      79 calls)

     Called by h_psi:
     h_psi:pot    :      0.17s CPU      0.18s WALL (      87 calls)
     h_psi:calbec :      0.03s CPU      0.03s WALL (      87 calls)
     vloc_psi     :      0.13s CPU      0.13s WALL (      87 calls)
     add_vuspsi   :      0.02s CPU      0.02s WALL (      87 calls)

     General routines
     calbec       :      0.04s CPU      0.04s WALL (     135 calls)
     fft          :      0.01s CPU      0.01s WALL (     103 calls)
     ffts         :      0.00s CPU      0.00s WALL (       7 calls)
     fftw         :      0.14s CPU      0.14s WALL (    1772 calls)

     Parallel routines

     PWSCF        :      1.74s CPU      1.77s WALL


   This run was terminated on:   5:27:44   5Jun2020            

=------------------------------------------------------------------------------=
   JOB DONE.
=------------------------------------------------------------------------------=
